602
 Atoms. Timestep: 64
Pt2 7.64892e-06 1.265e-05 0.0941033
Pt2 3.20067 1.265e-05 4.52877
Pt2 1.60034 1.265e-05 2.24821
Pt2 4.00084 1.38594 2.24821
Pt2 0.800173 1.38594 4.52877
Pt2 2.40051 1.38594 0.0941033
Pt2 4.801 1.265e-05 0.0941033
Pt2 8.00167 1.265e-05 4.52877
Pt2 6.40134 1.265e-05 2.24821
Pt2 8.80184 1.38594 2.24821
Pt2 5.60117 1.38594 4.52877
Pt2 7.2015 1.38594 0.0941033
Pt2 9.602 1.265e-05 0.0941033
Pt2 12.8027 1.265e-05 4.52877
Pt2 11.2023 1.265e-05 2.24821
Pt2 13.6028 1.38594 2.24821
Pt2 10.4022 1.38594 4.52877
Pt2 12.0025 1.38594 0.0941033
Pt2 14.403 1.265e-05 0.0941033
Pt2 17.6037 1.265e-05 4.52877
Pt2 16.0033 1.265e-05 2.24821
Pt2 18.4038 1.38594 2.24821
Pt2 15.2032 1.38594 4.52877
Pt2 16.8035 1.38594 0.0941033
Pt2 19.204 1.265e-05 0.0941033
Pt2 22.4047 1.265e-05 4.52877
Pt2 20.8043 1.265e-05 2.24821
Pt2 23.2048 1.38594 2.24821
Pt2 20.0042 1.38594 4.52877
Pt2 21.6045 1.38594 0.0941033
Pt2 7.64909e-06 2.77187 0.0941033
Pt2 3.20067 2.77187 4.52877
Pt2 1.60034 2.77187 2.24821
Pt2 4.00084 4.1578 2.24821
Pt2 0.800173 4.1578 4.52877
Pt2 2.40051 4.1578 0.0941033
Pt2 4.801 2.77187 0.0941033
Pt2 8.00167 2.77187 4.52877
Pt2 6.40134 2.77187 2.24821
Pt2 8.80184 4.1578 2.24821
Pt2 5.60117 4.1578 4.52877
Pt2 7.2015 4.1578 0.0941033
Pt2 9.602 2.77187 0.0941033
Pt2 12.8027 2.77187 4.52877
Pt2 11.2023 2.77187 2.24821
Pt2 13.6028 4.1578 2.24821
Pt2 10.4022 4.1578 4.52877
Pt2 12.0025 4.1578 0.0941033
Pt2 14.403 2.77187 0.0941033
Pt2 17.6037 2.77187 4.52877
Pt2 16.0033 2.77187 2.24821
Pt2 18.4038 4.1578 2.24821
Pt2 15.2032 4.1578 4.52877
Pt2 16.8035 4.1578 0.0941033
Pt2 19.204 2.77187 0.0941033
Pt2 22.4047 2.77187 4.52877
Pt2 20.8043 2.77187 2.24821
Pt2 23.2048 4.1578 2.24821
Pt2 20.0042 4.1578 4.52877
Pt2 21.6045 4.1578 0.0941033
Pt2 7.649e-06 5.54373 0.0941033
Pt2 3.20067 5.54373 4.52877
Pt2 1.60034 5.54373 2.24821
Pt2 4.00084 6.92965 2.24821
Pt2 0.800173 6.92965 4.52877
Pt2 2.40051 6.92965 0.0941033
Pt2 4.801 5.54373 0.0941033
Pt2 8.00167 5.54373 4.52877
Pt2 6.40134 5.54373 2.24821
Pt2 8.80184 6.92965 2.24821
Pt2 5.60117 6.92965 4.52877
Pt2 7.2015 6.92965 0.0941033
Pt2 9.602 5.54373 0.0941033
Pt2 12.8027 5.54373 4.52877
Pt2 11.2023 5.54373 2.24821
Pt2 13.6028 6.92965 2.24821
Pt2 10.4022 6.92965 4.52877
Pt2 12.0025 6.92965 0.0941033
Pt2 14.403 5.54373 0.0941033
Pt2 17.6037 5.54373 4.52877
Pt2 16.0033 5.54373 2.24821
Pt2 18.4038 6.92965 2.24821
Pt2 15.2032 6.92965 4.52877
Pt2 16.8035 6.92965 0.0941033
Pt2 19.204 5.54373 0.0941033
Pt2 22.4047 5.54373 4.52877
Pt2 20.8043 5.54373 2.24821
Pt2 23.2048 6.92965 2.24821
Pt2 20.0042 6.92965 4.52877
Pt2 21.6045 6.92965 0.0941033
Pt2 7.64893e-06 8.31558 0.0941033
Pt2 3.20067 8.31558 4.52877
Pt2 1.60034 8.31558 2.24821
Pt2 4.00084 9.70151 2.24821
Pt2 0.800173 9.70151 4.52877
Pt2 2.40051 9.70151 0.0941033
Pt2 4.801 8.31558 0.0941033
Pt2 8.00167 8.31558 4.52877
Pt2 6.40134 8.31558 2.24821
Pt2 8.80184 9.70151 2.24821
Pt2 5.60117 9.70151 4.52877
Pt2 7.2015 9.70151 0.0941033
Pt2 9.602 8.31558 0.0941033
Pt2 12.8027 8.31558 4.52877
Pt2 11.2023 8.31558 2.24821
Pt2 13.6028 9.70151 2.24821
Pt2 10.4022 9.70151 4.52877
Pt2 12.0025 9.70151 0.0941033
Pt2 14.403 8.31558 0.0941033
Pt2 17.6037 8.31558 4.52877
Pt2 16.0033 8.31558 2.24821
Pt2 18.4038 9.70151 2.24821
Pt2 15.2032 9.70151 4.52877
Pt2 16.8035 9.70151 0.0941033
Pt2 19.204 8.31558 0.0941033
Pt2 22.4047 8.31558 4.52877
Pt2 20.8043 8.31558 2.24821
Pt2 23.2048 9.70151 2.24821
Pt2 20.0042 9.70151 4.52877
Pt2 21.6045 9.70151 0.0941033
Pt2 7.64887e-06 11.0874 0.0941033
Pt2 3.20067 11.0874 4.52877
Pt2 1.60034 11.0874 2.24821
Pt2 4.00084 12.4734 2.24821
Pt2 0.800173 12.4734 4.52877
Pt2 2.40051 12.4734 0.0941033
Pt2 4.801 11.0874 0.0941033
Pt2 8.00167 11.0874 4.52877
Pt2 6.40134 11.0874 2.24821
Pt2 8.80184 12.4734 2.24821
Pt2 5.60117 12.4734 4.52877
Pt2 7.2015 12.4734 0.0941033
Pt2 9.602 11.0874 0.0941033
Pt2 12.8027 11.0874 4.52877
Pt2 11.2023 11.0874 2.24821
Pt2 13.6028 12.4734 2.24821
Pt2 10.4022 12.4734 4.52877
Pt2 12.0025 12.4734 0.0941033
Pt2 14.403 11.0874 0.0941033
Pt2 17.6037 11.0874 4.52877
Pt2 16.0033 11.0874 2.24821
Pt2 18.4038 12.4734 2.24821
Pt2 15.2032 12.4734 4.52877
Pt2 16.8035 12.4734 0.0941033
Pt2 19.204 11.0874 0.0941033
Pt2 22.4047 11.0874 4.52877
Pt2 20.8043 11.0874 2.24821
Pt2 23.2048 12.4734 2.24821
Pt2 20.0042 12.4734 4.52877
Pt2 21.6045 12.4734 0.0941033
Pt2 7.64892e-06 13.8593 0.0941033
Pt2 3.20067 13.8593 4.52877
Pt2 1.60034 13.8593 2.24821
Pt2 4.00084 15.2452 2.24821
Pt2 0.800173 15.2452 4.52877
Pt2 2.40051 15.2452 0.0941033
Pt2 4.801 13.8593 0.0941033
Pt2 8.00167 13.8593 4.52877
Pt2 6.40134 13.8593 2.24821
Pt2 8.80184 15.2452 2.24821
Pt2 5.60117 15.2452 4.52877
Pt2 7.2015 15.2452 0.0941033
Pt2 9.602 13.8593 0.0941033
Pt2 12.8027 13.8593 4.52877
Pt2 11.2023 13.8593 2.24821
Pt2 13.6028 15.2452 2.24821
Pt2 10.4022 15.2452 4.52877
Pt2 12.0025 15.2452 0.0941033
Pt2 14.403 13.8593 0.0941033
Pt2 17.6037 13.8593 4.52877
Pt2 16.0033 13.8593 2.24821
Pt2 18.4038 15.2452 2.24821
Pt2 15.2032 15.2452 4.52877
Pt2 16.8035 15.2452 0.0941033
Pt2 19.204 13.8593 0.0941033
Pt2 22.4047 13.8593 4.52877
Pt2 20.8043 13.8593 2.24821
Pt2 23.2048 15.2452 2.24821
Pt2 20.0042 15.2452 4.52877
Pt2 21.6045 15.2452 0.0941033
Pt2 7.64909e-06 16.6312 0.0941033
Pt2 3.20067 16.6312 4.52877
Pt2 1.60034 16.6312 2.24821
Pt2 4.00084 18.0171 2.24821
Pt2 0.800173 18.0171 4.52877
Pt2 2.40051 18.0171 0.0941033
Pt2 4.801 16.6312 0.0941033
Pt2 8.00167 16.6312 4.52877
Pt2 6.40134 16.6312 2.24821
Pt2 8.80184 18.0171 2.24821
Pt2 5.60117 18.0171 4.52877
Pt2 7.2015 18.0171 0.0941033
Pt2 9.602 16.6312 0.0941033
Pt2 12.8027 16.6312 4.52877
Pt2 11.2023 16.6312 2.24821
Pt2 13.6028 18.0171 2.24821
Pt2 10.4022 18.0171 4.52877
Pt2 12.0025 18.0171 0.0941033
Pt2 14.403 16.6312 0.0941033
Pt2 17.6037 16.6312 4.52877
Pt2 16.0033 16.6312 2.24821
Pt2 18.4038 18.0171 2.24821
Pt2 15.2032 18.0171 4.52877
Pt2 16.8035 18.0171 0.0941033
Pt2 19.204 16.6312 0.0941033
Pt2 22.4047 16.6312 4.52877
Pt2 20.8043 16.6312 2.24821
Pt2 23.2048 18.0171 2.24821
Pt2 20.0042 18.0171 4.52877
Pt2 21.6045 18.0171 0.0941033
Pt2 7.64903e-06 19.403 0.0941033
Pt2 3.20067 19.403 4.52877
Pt2 1.60034 19.403 2.24821
Pt2 4.00084 20.7889 2.24821
Pt2 0.800173 20.7889 4.52877
Pt2 2.40051 20.7889 0.0941033
Pt2 4.801 19.403 0.0941033
Pt2 8.00167 19.403 4.52877
Pt2 6.40134 19.403 2.24821
Pt2 8.80184 20.7889 2.24821
Pt2 5.60117 20.7889 4.52877
Pt2 7.2015 20.7889 0.0941033
Pt2 9.602 19.403 0.0941033
Pt2 12.8027 19.403 4.52877
Pt2 11.2023 19.403 2.24821
Pt2 13.6028 20.7889 2.24821
Pt2 10.4022 20.7889 4.52877
Pt2 12.0025 20.7889 0.0941033
Pt2 14.403 19.403 0.0941033
Pt2 17.6037 19.403 4.52877
Pt2 16.0033 19.403 2.24821
Pt2 18.4038 20.7889 2.24821
Pt2 15.2032 20.7889 4.52877
Pt2 16.8035 20.7889 0.0941033
Pt2 19.204 19.403 0.0941033
Pt2 22.4047 19.403 4.52877
Pt2 20.8043 19.403 2.24821
Pt2 23.2048 20.7889 2.24821
Pt2 20.0042 20.7889 4.52877
Pt2 21.6045 20.7889 0.0941033
Pt2 7.64893e-06 22.1749 0.0941033
Pt2 3.20067 22.1749 4.52877
Pt2 1.60034 22.1749 2.24821
Pt2 4.00084 23.5608 2.24821
Pt2 0.800173 23.5608 4.52877
Pt2 2.40051 23.5608 0.0941033
Pt2 4.801 22.1749 0.0941033
Pt2 8.00167 22.1749 4.52877
Pt2 6.40134 22.1749 2.24821
Pt2 8.80184 23.5608 2.24821
Pt2 5.60117 23.5608 4.52877
Pt2 7.2015 23.5608 0.0941033
Pt2 9.602 22.1749 0.0941033
Pt2 12.8027 22.1749 4.52877
Pt2 11.2023 22.1749 2.24821
Pt2 13.6028 23.5608 2.24821
Pt2 10.4022 23.5608 4.52877
Pt2 12.0025 23.5608 0.0941033
Pt2 14.403 22.1749 0.0941033
Pt2 17.6037 22.1749 4.52877
Pt2 16.0033 22.1749 2.24821
Pt2 18.4038 23.5608 2.24821
Pt2 15.2032 23.5608 4.52877
Pt2 16.8035 23.5608 0.0941033
Pt2 19.204 22.1749 0.0941033
Pt2 22.4047 22.1749 4.52877
Pt2 20.8043 22.1749 2.24821
Pt2 23.2048 23.5608 2.24821
Pt2 20.0042 23.5608 4.52877
Pt2 21.6045 23.5608 0.0941033
Pt2 7.64892e-06 24.9467 0.0941033
Pt2 3.20067 24.9467 4.52877
Pt2 1.60034 24.9467 2.24821
Pt2 4.00084 26.3327 2.24821
Pt2 0.800173 26.3327 4.52877
Pt2 2.40051 26.3327 0.0941033
Pt2 4.801 24.9467 0.0941033
Pt2 8.00167 24.9467 4.52877
Pt2 6.40134 24.9467 2.24821
Pt2 8.80184 26.3327 2.24821
Pt2 5.60117 26.3327 4.52877
Pt2 7.2015 26.3327 0.0941033
Pt2 9.602 24.9467 0.0941033
Pt2 12.8027 24.9467 4.52877
Pt2 11.2023 24.9467 2.24821
Pt2 13.6028 26.3327 2.24821
Pt2 10.4022 26.3327 4.52877
Pt2 12.0025 26.3327 0.0941033
Pt2 14.403 24.9467 0.0941033
Pt2 17.6037 24.9467 4.52877
Pt2 16.0033 24.9467 2.24821
Pt2 18.4038 26.3327 2.24821
Pt2 15.2032 26.3327 4.52877
Pt2 16.8035 26.3327 0.0941033
Pt2 19.204 24.9467 0.0941033
Pt2 22.4047 24.9467 4.52877
Pt2 20.8043 24.9467 2.24821
Pt2 23.2048 26.3327 2.24821
Pt2 20.0042 26.3327 4.52877
Pt2 21.6045 26.3327 0.0941033
Pt2 7.05228e-06 1.265e-05 6.7873
Pt1 3.20067 1.265e-05 11.222
Pt2 1.60034 1.265e-05 9.06787
Pt2 4.00084 1.38594 9.06787
Pt1 0.800173 1.38594 11.222
Pt2 2.40051 1.38594 6.7873
Pt2 4.801 1.265e-05 6.7873
Pt1 8.00167 1.265e-05 11.222
Pt2 6.40134 1.265e-05 9.06787
Pt2 8.80183 1.38594 9.06787
Pt1 5.60117 1.38594 11.222
Pt2 7.2015 1.38594 6.7873
Pt2 9.602 1.265e-05 6.7873
Pt1 12.8027 1.265e-05 11.222
Pt2 11.2023 1.265e-05 9.06787
Pt2 13.6028 1.38594 9.06787
Pt1 10.4022 1.38594 11.222
Pt2 12.0025 1.38594 6.7873
Pt2 14.403 1.265e-05 6.7873
Pt1 17.6037 1.265e-05 11.222
Pt2 16.0033 1.265e-05 9.06787
Pt2 18.4038 1.38594 9.06787
Pt1 15.2032 1.38594 11.222
Pt2 16.8035 1.38594 6.7873
Pt2 19.204 1.265e-05 6.7873
Pt1 22.4047 1.265e-05 11.222
Pt2 20.8043 1.265e-05 9.06787
Pt2 23.2048 1.38594 9.06787
Pt1 20.0042 1.38594 11.222
Pt2 21.6045 1.38594 6.7873
Pt2 7.05237e-06 2.77187 6.7873
Pt1 3.20067 2.77187 11.222
Pt2 1.60034 2.77187 9.06787
Pt2 4.00084 4.1578 9.06787
Pt1 0.800173 4.1578 11.222
Pt2 2.40051 4.1578 6.7873
Pt2 4.801 2.77187 6.7873
Pt1 8.00167 2.77187 11.222
Pt2 6.40134 2.77187 9.06787
Pt2 8.80183 4.1578 9.06787
Pt1 5.60117 4.1578 11.222
Pt2 7.2015 4.1578 6.7873
Pt2 9.602 2.77187 6.7873
Pt1 12.8027 2.77187 11.222
Pt2 11.2023 2.77187 9.06787
Pt2 13.6028 4.1578 9.06787
Pt1 10.4022 4.1578 11.222
Pt2 12.0025 4.1578 6.7873
Pt2 14.403 2.77187 6.7873
Pt1 17.6037 2.77187 11.222
Pt2 16.0033 2.77187 9.06787
Pt2 18.4038 4.1578 9.06787
Pt1 15.2032 4.1578 11.222
Pt2 16.8035 4.1578 6.7873
Pt2 19.204 2.77187 6.7873
Pt1 22.4047 2.77187 11.222
Pt2 20.8043 2.77187 9.06787
Pt2 23.2048 4.1578 9.06787
Pt1 20.0042 4.1578 11.222
Pt2 21.6045 4.1578 6.7873
Pt2 7.05236e-06 5.54373 6.7873
Pt1 3.20067 5.54373 11.222
Pt2 1.60034 5.54373 9.06787
Pt2 4.00084 6.92965 9.06787
Pt1 0.800173 6.92965 11.222
Pt2 2.40051 6.92965 6.7873
Pt2 4.801 5.54373 6.7873
Pt1 8.00167 5.54373 11.222
Pt2 6.40134 5.54373 9.06787
Pt2 8.80183 6.92965 9.06787
Pt1 5.60117 6.92965 11.222
Pt2 7.2015 6.92965 6.7873
Pt2 9.602 5.54373 6.7873
Pt1 12.8027 5.54373 11.222
Pt2 11.2023 5.54373 9.06787
Pt2 13.6028 6.92965 9.06787
Pt1 10.4022 6.92965 11.222
Pt2 12.0025 6.92965 6.7873
Pt2 14.403 5.54373 6.7873
Pt1 17.6037 5.54373 11.222
Pt2 16.0033 5.54373 9.06787
Pt2 18.4038 6.92965 9.06787
Pt1 15.2032 6.92965 11.222
Pt2 16.8035 6.92965 6.7873
Pt2 19.204 5.54373 6.7873
Pt1 22.4047 5.54373 11.222
Pt2 20.8043 5.54373 9.06787
Pt2 23.2048 6.92965 9.06787
Pt1 20.0042 6.92965 11.222
Pt2 21.6045 6.92965 6.7873
Pt2 7.05239e-06 8.31558 6.7873
Pt1 3.20067 8.31558 11.222
Pt2 1.60034 8.31558 9.06787
Pt2 4.00084 9.70151 9.06787
Pt1 0.800173 9.70151 11.222
Pt2 2.40051 9.70151 6.7873
Pt2 4.801 8.31558 6.7873
Pt1 8.00167 8.31558 11.222
Pt2 6.40134 8.31558 9.06787
Pt2 8.80183 9.70151 9.06787
Pt1 5.60117 9.70151 11.222
Pt2 7.2015 9.70151 6.7873
Pt2 9.602 8.31558 6.7873
Pt1 12.8027 8.31558 11.222
Pt2 11.2023 8.31558 9.06787
Pt2 13.6028 9.70151 9.06787
Pt1 10.4022 9.70151 11.222
Pt2 12.0025 9.70151 6.7873
Pt2 14.403 8.31558 6.7873
Pt1 17.6037 8.31558 11.222
Pt2 16.0033 8.31558 9.06787
Pt2 18.4038 9.70151 9.06787
Pt1 15.2032 9.70151 11.222
Pt2 16.8035 9.70151 6.7873
Pt2 19.204 8.31558 6.7873
Pt1 22.4047 8.31558 11.222
Pt2 20.8043 8.31558 9.06787
Pt2 23.2048 9.70151 9.06787
Pt1 20.0042 9.70151 11.222
Pt2 21.6045 9.70151 6.7873
Pt2 7.05243e-06 11.0874 6.7873
Pt1 3.20067 11.0874 11.222
Pt2 1.60034 11.0874 9.06787
Pt2 4.00084 12.4734 9.06787
Pt1 0.800173 12.4734 11.222
Pt2 2.40051 12.4734 6.7873
Pt2 4.801 11.0874 6.7873
Pt1 8.00167 11.0874 11.222
Pt2 6.40134 11.0874 9.06787
Pt2 8.80183 12.4734 9.06787
Pt1 5.60117 12.4734 11.222
Pt2 7.2015 12.4734 6.7873
Pt2 9.602 11.0874 6.7873
Pt1 12.8027 11.0874 11.222
Pt2 11.2023 11.0874 9.06787
Pt2 13.6028 12.4734 9.06787
Pt1 10.4022 12.4734 11.222
Pt2 12.0025 12.4734 6.7873
Pt2 14.403 11.0874 6.7873
Pt1 17.6037 11.0874 11.222
Pt2 16.0033 11.0874 9.06787
Pt2 18.4038 12.4734 9.06787
Pt1 15.2032 12.4734 11.222
Pt2 16.8035 12.4734 6.7873
Pt2 19.204 11.0874 6.7873
Pt1 22.4047 11.0874 11.222
Pt2 20.8043 11.0874 9.06787
Pt2 23.2048 12.4734 9.06787
Pt1 20.0042 12.4734 11.222
Pt2 21.6045 12.4734 6.7873
Pt2 7.05246e-06 13.8593 6.7873
Pt1 3.20067 13.8593 11.222
Pt2 1.60034 13.8593 9.06787
Pt2 4.00084 15.2452 9.06787
Pt1 0.800173 15.2452 11.222
Pt2 2.40051 15.2452 6.7873
Pt2 4.801 13.8593 6.7873
Pt1 8.00167 13.8593 11.222
Pt2 6.40134 13.8593 9.06787
Pt2 8.80183 15.2452 9.06787
Pt1 5.60117 15.2452 11.222
Pt2 7.2015 15.2452 6.7873
Pt2 9.602 13.8593 6.7873
Pt1 12.8027 13.8593 11.222
Pt2 11.2023 13.8593 9.06787
Pt2 13.6028 15.2452 9.06787
Pt1 10.4022 15.2452 11.222
Pt2 12.0025 15.2452 6.7873
Pt2 14.403 13.8593 6.7873
Pt1 17.6037 13.8593 11.222
Pt2 16.0033 13.8593 9.06787
Pt2 18.4038 15.2452 9.06787
Pt1 15.2032 15.2452 11.222
Pt2 16.8035 15.2452 6.7873
Pt2 19.204 13.8593 6.7873
Pt1 22.4047 13.8593 11.222
Pt2 20.8043 13.8593 9.06787
Pt2 23.2048 15.2452 9.06787
Pt1 20.0042 15.2452 11.222
Pt2 21.6045 15.2452 6.7873
Pt2 7.05237e-06 16.6312 6.7873
Pt1 3.20067 16.6312 11.222
Pt2 1.60034 16.6312 9.06787
Pt2 4.00084 18.0171 9.06787
Pt1 0.800173 18.0171 11.222
Pt2 2.40051 18.0171 6.7873
Pt2 4.801 16.6312 6.7873
Pt1 8.00167 16.6312 11.222
Pt2 6.40134 16.6312 9.06787
Pt2 8.80183 18.0171 9.06787
Pt1 5.60117 18.0171 11.222
Pt2 7.2015 18.0171 6.7873
Pt2 9.602 16.6312 6.7873
Pt1 12.8027 16.6312 11.222
Pt2 11.2023 16.6312 9.06787
Pt2 13.6028 18.0171 9.06787
Pt1 10.4022 18.0171 11.222
Pt2 12.0025 18.0171 6.7873
Pt2 14.403 16.6312 6.7873
Pt1 17.6037 16.6312 11.222
Pt2 16.0033 16.6312 9.06787
Pt2 18.4038 18.0171 9.06787
Pt1 15.2032 18.0171 11.222
Pt2 16.8035 18.0171 6.7873
Pt2 19.204 16.6312 6.7873
Pt1 22.4047 16.6312 11.222
Pt2 20.8043 16.6312 9.06787
Pt2 23.2048 18.0171 9.06787
Pt1 20.0042 18.0171 11.222
Pt2 21.6045 18.0171 6.7873
Pt2 7.05234e-06 19.403 6.7873
Pt1 3.20067 19.403 11.222
Pt2 1.60034 19.403 9.06787
Pt2 4.00084 20.7889 9.06787
Pt1 0.800173 20.7889 11.222
Pt2 2.40051 20.7889 6.7873
Pt2 4.801 19.403 6.7873
Pt1 8.00167 19.403 11.222
Pt2 6.40134 19.403 9.06787
Pt2 8.80183 20.7889 9.06787
Pt1 5.60117 20.7889 11.222
Pt2 7.2015 20.7889 6.7873
Pt2 9.602 19.403 6.7873
Pt1 12.8027 19.403 11.222
Pt2 11.2023 19.403 9.06787
Pt2 13.6028 20.7889 9.06787
Pt1 10.4022 20.7889 11.222
Pt2 12.0025 20.7889 6.7873
Pt2 14.403 19.403 6.7873
Pt1 17.6037 19.403 11.222
Pt2 16.0033 19.403 9.06787
Pt2 18.4038 20.7889 9.06787
Pt1 15.2032 20.7889 11.222
Pt2 16.8035 20.7889 6.7873
Pt2 19.204 19.403 6.7873
Pt1 22.4047 19.403 11.222
Pt2 20.8043 19.403 9.06787
Pt2 23.2048 20.7889 9.06787
Pt1 20.0042 20.7889 11.222
Pt2 21.6045 20.7889 6.7873
Pt2 7.05235e-06 22.1749 6.7873
Pt1 3.20067 22.1749 11.222
Pt2 1.60034 22.1749 9.06787
Pt2 4.00084 23.5608 9.06787
Pt1 0.800173 23.5608 11.222
Pt2 2.40051 23.5608 6.7873
Pt2 4.801 22.1749 6.7873
Pt1 8.00167 22.1749 11.222
Pt2 6.40134 22.1749 9.06787
Pt2 8.80183 23.5608 9.06787
Pt1 5.60117 23.5608 11.222
Pt2 7.2015 23.5608 6.7873
Pt2 9.602 22.1749 6.7873
Pt1 12.8027 22.1749 11.222
Pt2 11.2023 22.1749 9.06787
Pt2 13.6028 23.5608 9.06787
Pt1 10.4022 23.5608 11.222
Pt2 12.0025 23.5608 6.7873
Pt2 14.403 22.1749 6.7873
Pt1 17.6037 22.1749 11.222
Pt2 16.0033 22.1749 9.06787
Pt2 18.4038 23.5608 9.06787
Pt1 15.2032 23.5608 11.222
Pt2 16.8035 23.5608 6.7873
Pt2 19.204 22.1749 6.7873
Pt1 22.4047 22.1749 11.222
Pt2 20.8043 22.1749 9.06787
Pt2 23.2048 23.5608 9.06787
Pt1 20.0042 23.5608 11.222
Pt2 21.6045 23.5608 6.7873
Pt2 7.05237e-06 24.9467 6.7873
Pt1 3.20067 24.9467 11.222
Pt2 1.60034 24.9467 9.06787
Pt2 4.00084 26.3327 9.06787
Pt1 0.800173 26.3327 11.222
Pt2 2.40051 26.3327 6.7873
Pt2 4.801 24.9467 6.7873
Pt1 8.00167 24.9467 11.222
Pt2 6.40134 24.9467 9.06787
Pt2 8.80183 26.3327 9.06787
Pt1 5.60117 26.3327 11.222
Pt2 7.2015 26.3327 6.7873
Pt2 9.602 24.9467 6.7873
Pt1 12.8027 24.9467 11.222
Pt2 11.2023 24.9467 9.06787
Pt2 13.6028 26.3327 9.06787
Pt1 10.4022 26.3327 11.222
Pt2 12.0025 26.3327 6.7873
Pt2 14.403 24.9467 6.7873
Pt1 17.6037 24.9467 11.222
Pt2 16.0033 24.9467 9.06787
Pt2 18.4038 26.3327 9.06787
Pt1 15.2032 26.3327 11.222
Pt2 16.8035 26.3327 6.7873
Pt2 19.204 24.9467 6.7873
Pt1 22.4047 24.9467 11.222
Pt2 20.8043 24.9467 9.06787
Pt2 23.2048 26.3327 9.06787
Pt1 20.0042 26.3327 11.222
Pt2 21.6045 26.3327 6.7873
H 8.6786 12.47 21.8
H 7.7214 12.47 21.8
602
 Atoms. Timestep: 64
Pt2 7.64892e-06 1.265e-05 0.0941033
Pt2 3.20067 1.265e-05 4.52877
Pt2 1.60034 1.265e-05 2.24821
Pt2 4.00084 1.38594 2.24821
Pt2 0.800173 1.38594 4.52877
Pt2 2.40051 1.38594 0.0941033
Pt2 4.801 1.265e-05 0.0941033
Pt2 8.00167 1.265e-05 4.52877
Pt2 6.40134 1.265e-05 2.24821
Pt2 8.80184 1.38594 2.24821
Pt2 5.60117 1.38594 4.52877
Pt2 7.2015 1.38594 0.0941033
Pt2 9.602 1.265e-05 0.0941033
Pt2 12.8027 1.265e-05 4.52877
Pt2 11.2023 1.265e-05 2.24821
Pt2 13.6028 1.38594 2.24821
Pt2 10.4022 1.38594 4.52877
Pt2 12.0025 1.38594 0.0941033
Pt2 14.403 1.265e-05 0.0941033
Pt2 17.6037 1.265e-05 4.52877
Pt2 16.0033 1.265e-05 2.24821
Pt2 18.4038 1.38594 2.24821
Pt2 15.2032 1.38594 4.52877
Pt2 16.8035 1.38594 0.0941033
Pt2 19.204 1.265e-05 0.0941033
Pt2 22.4047 1.265e-05 4.52877
Pt2 20.8043 1.265e-05 2.24821
Pt2 23.2048 1.38594 2.24821
Pt2 20.0042 1.38594 4.52877
Pt2 21.6045 1.38594 0.0941033
Pt2 7.64909e-06 2.77187 0.0941033
Pt2 3.20067 2.77187 4.52877
Pt2 1.60034 2.77187 2.24821
Pt2 4.00084 4.1578 2.24821
Pt2 0.800173 4.1578 4.52877
Pt2 2.40051 4.1578 0.0941033
Pt2 4.801 2.77187 0.0941033
Pt2 8.00167 2.77187 4.52877
Pt2 6.40134 2.77187 2.24821
Pt2 8.80184 4.1578 2.24821
Pt2 5.60117 4.1578 4.52877
Pt2 7.2015 4.1578 0.0941033
Pt2 9.602 2.77187 0.0941033
Pt2 12.8027 2.77187 4.52877
Pt2 11.2023 2.77187 2.24821
Pt2 13.6028 4.1578 2.24821
Pt2 10.4022 4.1578 4.52877
Pt2 12.0025 4.1578 0.0941033
Pt2 14.403 2.77187 0.0941033
Pt2 17.6037 2.77187 4.52877
Pt2 16.0033 2.77187 2.24821
Pt2 18.4038 4.1578 2.24821
Pt2 15.2032 4.1578 4.52877
Pt2 16.8035 4.1578 0.0941033
Pt2 19.204 2.77187 0.0941033
Pt2 22.4047 2.77187 4.52877
Pt2 20.8043 2.77187 2.24821
Pt2 23.2048 4.1578 2.24821
Pt2 20.0042 4.1578 4.52877
Pt2 21.6045 4.1578 0.0941033
Pt2 7.649e-06 5.54373 0.0941033
Pt2 3.20067 5.54373 4.52877
Pt2 1.60034 5.54373 2.24821
Pt2 4.00084 6.92965 2.24821
Pt2 0.800173 6.92965 4.52877
Pt2 2.40051 6.92965 0.0941033
Pt2 4.801 5.54373 0.0941033
Pt2 8.00167 5.54373 4.52877
Pt2 6.40134 5.54373 2.24821
Pt2 8.80184 6.92965 2.24821
Pt2 5.60117 6.92965 4.52877
Pt2 7.2015 6.92965 0.0941033
Pt2 9.602 5.54373 0.0941033
Pt2 12.8027 5.54373 4.52877
Pt2 11.2023 5.54373 2.24821
Pt2 13.6028 6.92965 2.24821
Pt2 10.4022 6.92965 4.52877
Pt2 12.0025 6.92965 0.0941033
Pt2 14.403 5.54373 0.0941033
Pt2 17.6037 5.54373 4.52877
Pt2 16.0033 5.54373 2.24821
Pt2 18.4038 6.92965 2.24821
Pt2 15.2032 6.92965 4.52877
Pt2 16.8035 6.92965 0.0941033
Pt2 19.204 5.54373 0.0941033
Pt2 22.4047 5.54373 4.52877
Pt2 20.8043 5.54373 2.24821
Pt2 23.2048 6.92965 2.24821
Pt2 20.0042 6.92965 4.52877
Pt2 21.6045 6.92965 0.0941033
Pt2 7.64893e-06 8.31558 0.0941033
Pt2 3.20067 8.31558 4.52877
Pt2 1.60034 8.31558 2.24821
Pt2 4.00084 9.70151 2.24821
Pt2 0.800173 9.70151 4.52877
Pt2 2.40051 9.70151 0.0941033
Pt2 4.801 8.31558 0.0941033
Pt2 8.00167 8.31558 4.52877
Pt2 6.40134 8.31558 2.24821
Pt2 8.80184 9.70151 2.24821
Pt2 5.60117 9.70151 4.52877
Pt2 7.2015 9.70151 0.0941033
Pt2 9.602 8.31558 0.0941033
Pt2 12.8027 8.31558 4.52877
Pt2 11.2023 8.31558 2.24821
Pt2 13.6028 9.70151 2.24821
Pt2 10.4022 9.70151 4.52877
Pt2 12.0025 9.70151 0.0941033
Pt2 14.403 8.31558 0.0941033
Pt2 17.6037 8.31558 4.52877
Pt2 16.0033 8.31558 2.24821
Pt2 18.4038 9.70151 2.24821
Pt2 15.2032 9.70151 4.52877
Pt2 16.8035 9.70151 0.0941033
Pt2 19.204 8.31558 0.0941033
Pt2 22.4047 8.31558 4.52877
Pt2 20.8043 8.31558 2.24821
Pt2 23.2048 9.70151 2.24821
Pt2 20.0042 9.70151 4.52877
Pt2 21.6045 9.70151 0.0941033
Pt2 7.64887e-06 11.0874 0.0941033
Pt2 3.20067 11.0874 4.52877
Pt2 1.60034 11.0874 2.24821
Pt2 4.00084 12.4734 2.24821
Pt2 0.800173 12.4734 4.52877
Pt2 2.40051 12.4734 0.0941033
Pt2 4.801 11.0874 0.0941033
Pt2 8.00167 11.0874 4.52877
Pt2 6.40134 11.0874 2.24821
Pt2 8.80184 12.4734 2.24821
Pt2 5.60117 12.4734 4.52877
Pt2 7.2015 12.4734 0.0941033
Pt2 9.602 11.0874 0.0941033
Pt2 12.8027 11.0874 4.52877
Pt2 11.2023 11.0874 2.24821
Pt2 13.6028 12.4734 2.24821
Pt2 10.4022 12.4734 4.52877
Pt2 12.0025 12.4734 0.0941033
Pt2 14.403 11.0874 0.0941033
Pt2 17.6037 11.0874 4.52877
Pt2 16.0033 11.0874 2.24821
Pt2 18.4038 12.4734 2.24821
Pt2 15.2032 12.4734 4.52877
Pt2 16.8035 12.4734 0.0941033
Pt2 19.204 11.0874 0.0941033
Pt2 22.4047 11.0874 4.52877
Pt2 20.8043 11.0874 2.24821
Pt2 23.2048 12.4734 2.24821
Pt2 20.0042 12.4734 4.52877
Pt2 21.6045 12.4734 0.0941033
Pt2 7.64892e-06 13.8593 0.0941033
Pt2 3.20067 13.8593 4.52877
Pt2 1.60034 13.8593 2.24821
Pt2 4.00084 15.2452 2.24821
Pt2 0.800173 15.2452 4.52877
Pt2 2.40051 15.2452 0.0941033
Pt2 4.801 13.8593 0.0941033
Pt2 8.00167 13.8593 4.52877
Pt2 6.40134 13.8593 2.24821
Pt2 8.80184 15.2452 2.24821
Pt2 5.60117 15.2452 4.52877
Pt2 7.2015 15.2452 0.0941033
Pt2 9.602 13.8593 0.0941033
Pt2 12.8027 13.8593 4.52877
Pt2 11.2023 13.8593 2.24821
Pt2 13.6028 15.2452 2.24821
Pt2 10.4022 15.2452 4.52877
Pt2 12.0025 15.2452 0.0941033
Pt2 14.403 13.8593 0.0941033
Pt2 17.6037 13.8593 4.52877
Pt2 16.0033 13.8593 2.24821
Pt2 18.4038 15.2452 2.24821
Pt2 15.2032 15.2452 4.52877
Pt2 16.8035 15.2452 0.0941033
Pt2 19.204 13.8593 0.0941033
Pt2 22.4047 13.8593 4.52877
Pt2 20.8043 13.8593 2.24821
Pt2 23.2048 15.2452 2.24821
Pt2 20.0042 15.2452 4.52877
Pt2 21.6045 15.2452 0.0941033
Pt2 7.64909e-06 16.6312 0.0941033
Pt2 3.20067 16.6312 4.52877
Pt2 1.60034 16.6312 2.24821
Pt2 4.00084 18.0171 2.24821
Pt2 0.800173 18.0171 4.52877
Pt2 2.40051 18.0171 0.0941033
Pt2 4.801 16.6312 0.0941033
Pt2 8.00167 16.6312 4.52877
Pt2 6.40134 16.6312 2.24821
Pt2 8.80184 18.0171 2.24821
Pt2 5.60117 18.0171 4.52877
Pt2 7.2015 18.0171 0.0941033
Pt2 9.602 16.6312 0.0941033
Pt2 12.8027 16.6312 4.52877
Pt2 11.2023 16.6312 2.24821
Pt2 13.6028 18.0171 2.24821
Pt2 10.4022 18.0171 4.52877
Pt2 12.0025 18.0171 0.0941033
Pt2 14.403 16.6312 0.0941033
Pt2 17.6037 16.6312 4.52877
Pt2 16.0033 16.6312 2.24821
Pt2 18.4038 18.0171 2.24821
Pt2 15.2032 18.0171 4.52877
Pt2 16.8035 18.0171 0.0941033
Pt2 19.204 16.6312 0.0941033
Pt2 22.4047 16.6312 4.52877
Pt2 20.8043 16.6312 2.24821
Pt2 23.2048 18.0171 2.24821
Pt2 20.0042 18.0171 4.52877
Pt2 21.6045 18.0171 0.0941033
Pt2 7.64903e-06 19.403 0.0941033
Pt2 3.20067 19.403 4.52877
Pt2 1.60034 19.403 2.24821
Pt2 4.00084 20.7889 2.24821
Pt2 0.800173 20.7889 4.52877
Pt2 2.40051 20.7889 0.0941033
Pt2 4.801 19.403 0.0941033
Pt2 8.00167 19.403 4.52877
Pt2 6.40134 19.403 2.24821
Pt2 8.80184 20.7889 2.24821
Pt2 5.60117 20.7889 4.52877
Pt2 7.2015 20.7889 0.0941033
Pt2 9.602 19.403 0.0941033
Pt2 12.8027 19.403 4.52877
Pt2 11.2023 19.403 2.24821
Pt2 13.6028 20.7889 2.24821
Pt2 10.4022 20.7889 4.52877
Pt2 12.0025 20.7889 0.0941033
Pt2 14.403 19.403 0.0941033
Pt2 17.6037 19.403 4.52877
Pt2 16.0033 19.403 2.24821
Pt2 18.4038 20.7889 2.24821
Pt2 15.2032 20.7889 4.52877
Pt2 16.8035 20.7889 0.0941033
Pt2 19.204 19.403 0.0941033
Pt2 22.4047 19.403 4.52877
Pt2 20.8043 19.403 2.24821
Pt2 23.2048 20.7889 2.24821
Pt2 20.0042 20.7889 4.52877
Pt2 21.6045 20.7889 0.0941033
Pt2 7.64893e-06 22.1749 0.0941033
Pt2 3.20067 22.1749 4.52877
Pt2 1.60034 22.1749 2.24821
Pt2 4.00084 23.5608 2.24821
Pt2 0.800173 23.5608 4.52877
Pt2 2.40051 23.5608 0.0941033
Pt2 4.801 22.1749 0.0941033
Pt2 8.00167 22.1749 4.52877
Pt2 6.40134 22.1749 2.24821
Pt2 8.80184 23.5608 2.24821
Pt2 5.60117 23.5608 4.52877
Pt2 7.2015 23.5608 0.0941033
Pt2 9.602 22.1749 0.0941033
Pt2 12.8027 22.1749 4.52877
Pt2 11.2023 22.1749 2.24821
Pt2 13.6028 23.5608 2.24821
Pt2 10.4022 23.5608 4.52877
Pt2 12.0025 23.5608 0.0941033
Pt2 14.403 22.1749 0.0941033
Pt2 17.6037 22.1749 4.52877
Pt2 16.0033 22.1749 2.24821
Pt2 18.4038 23.5608 2.24821
Pt2 15.2032 23.5608 4.52877
Pt2 16.8035 23.5608 0.0941033
Pt2 19.204 22.1749 0.0941033
Pt2 22.4047 22.1749 4.52877
Pt2 20.8043 22.1749 2.24821
Pt2 23.2048 23.5608 2.24821
Pt2 20.0042 23.5608 4.52877
Pt2 21.6045 23.5608 0.0941033
Pt2 7.64892e-06 24.9467 0.0941033
Pt2 3.20067 24.9467 4.52877
Pt2 1.60034 24.9467 2.24821
Pt2 4.00084 26.3327 2.24821
Pt2 0.800173 26.3327 4.52877
Pt2 2.40051 26.3327 0.0941033
Pt2 4.801 24.9467 0.0941033
Pt2 8.00167 24.9467 4.52877
Pt2 6.40134 24.9467 2.24821
Pt2 8.80184 26.3327 2.24821
Pt2 5.60117 26.3327 4.52877
Pt2 7.2015 26.3327 0.0941033
Pt2 9.602 24.9467 0.0941033
Pt2 12.8027 24.9467 4.52877
Pt2 11.2023 24.9467 2.24821
Pt2 13.6028 26.3327 2.24821
Pt2 10.4022 26.3327 4.52877
Pt2 12.0025 26.3327 0.0941033
Pt2 14.403 24.9467 0.0941033
Pt2 17.6037 24.9467 4.52877
Pt2 16.0033 24.9467 2.24821
Pt2 18.4038 26.3327 2.24821
Pt2 15.2032 26.3327 4.52877
Pt2 16.8035 26.3327 0.0941033
Pt2 19.204 24.9467 0.0941033
Pt2 22.4047 24.9467 4.52877
Pt2 20.8043 24.9467 2.24821
Pt2 23.2048 26.3327 2.24821
Pt2 20.0042 26.3327 4.52877
Pt2 21.6045 26.3327 0.0941033
Pt2 7.05228e-06 1.265e-05 6.7873
Pt1 3.20067 1.265e-05 11.222
Pt2 1.60034 1.265e-05 9.06787
Pt2 4.00084 1.38594 9.06787
Pt1 0.800173 1.38594 11.222
Pt2 2.40051 1.38594 6.7873
Pt2 4.801 1.265e-05 6.7873
Pt1 8.00167 1.265e-05 11.222
Pt2 6.40134 1.265e-05 9.06787
Pt2 8.80183 1.38594 9.06787
Pt1 5.60117 1.38594 11.222
Pt2 7.2015 1.38594 6.7873
Pt2 9.602 1.265e-05 6.7873
Pt1 12.8027 1.265e-05 11.222
Pt2 11.2023 1.265e-05 9.06787
Pt2 13.6028 1.38594 9.06787
Pt1 10.4022 1.38594 11.222
Pt2 12.0025 1.38594 6.7873
Pt2 14.403 1.265e-05 6.7873
Pt1 17.6037 1.265e-05 11.222
Pt2 16.0033 1.265e-05 9.06787
Pt2 18.4038 1.38594 9.06787
Pt1 15.2032 1.38594 11.222
Pt2 16.8035 1.38594 6.7873
Pt2 19.204 1.265e-05 6.7873
Pt1 22.4047 1.265e-05 11.222
Pt2 20.8043 1.265e-05 9.06787
Pt2 23.2048 1.38594 9.06787
Pt1 20.0042 1.38594 11.222
Pt2 21.6045 1.38594 6.7873
Pt2 7.05237e-06 2.77187 6.7873
Pt1 3.20067 2.77187 11.222
Pt2 1.60034 2.77187 9.06787
Pt2 4.00084 4.1578 9.06787
Pt1 0.800173 4.1578 11.222
Pt2 2.40051 4.1578 6.7873
Pt2 4.801 2.77187 6.7873
Pt1 8.00167 2.77187 11.222
Pt2 6.40134 2.77187 9.06787
Pt2 8.80183 4.1578 9.06787
Pt1 5.60117 4.1578 11.222
Pt2 7.2015 4.1578 6.7873
Pt2 9.602 2.77187 6.7873
Pt1 12.8027 2.77187 11.222
Pt2 11.2023 2.77187 9.06787
Pt2 13.6028 4.1578 9.06787
Pt1 10.4022 4.1578 11.222
Pt2 12.0025 4.1578 6.7873
Pt2 14.403 2.77187 6.7873
Pt1 17.6037 2.77187 11.222
Pt2 16.0033 2.77187 9.06787
Pt2 18.4038 4.1578 9.06787
Pt1 15.2032 4.1578 11.222
Pt2 16.8035 4.1578 6.7873
Pt2 19.204 2.77187 6.7873
Pt1 22.4047 2.77187 11.222
Pt2 20.8043 2.77187 9.06787
Pt2 23.2048 4.1578 9.06787
Pt1 20.0042 4.1578 11.222
Pt2 21.6045 4.1578 6.7873
Pt2 7.05236e-06 5.54373 6.7873
Pt1 3.20067 5.54373 11.222
Pt2 1.60034 5.54373 9.06787
Pt2 4.00084 6.92965 9.06787
Pt1 0.800173 6.92965 11.222
Pt2 2.40051 6.92965 6.7873
Pt2 4.801 5.54373 6.7873
Pt1 8.00167 5.54373 11.222
Pt2 6.40134 5.54373 9.06787
Pt2 8.80183 6.92965 9.06787
Pt1 5.60117 6.92965 11.222
Pt2 7.2015 6.92965 6.7873
Pt2 9.602 5.54373 6.7873
Pt1 12.8027 5.54373 11.222
Pt2 11.2023 5.54373 9.06787
Pt2 13.6028 6.92965 9.06787
Pt1 10.4022 6.92965 11.222
Pt2 12.0025 6.92965 6.7873
Pt2 14.403 5.54373 6.7873
Pt1 17.6037 5.54373 11.222
Pt2 16.0033 5.54373 9.06787
Pt2 18.4038 6.92965 9.06787
Pt1 15.2032 6.92965 11.222
Pt2 16.8035 6.92965 6.7873
Pt2 19.204 5.54373 6.7873
Pt1 22.4047 5.54373 11.222
Pt2 20.8043 5.54373 9.06787
Pt2 23.2048 6.92965 9.06787
Pt1 20.0042 6.92965 11.222
Pt2 21.6045 6.92965 6.7873
Pt2 7.05239e-06 8.31558 6.7873
Pt1 3.20067 8.31558 11.222
Pt2 1.60034 8.31558 9.06787
Pt2 4.00084 9.70151 9.06787
Pt1 0.800173 9.70151 11.222
Pt2 2.40051 9.70151 6.7873
Pt2 4.801 8.31558 6.7873
Pt1 8.00167 8.31558 11.222
Pt2 6.40134 8.31558 9.06787
Pt2 8.80183 9.70151 9.06787
Pt1 5.60117 9.70151 11.222
Pt2 7.2015 9.70151 6.7873
Pt2 9.602 8.31558 6.7873
Pt1 12.8027 8.31558 11.222
Pt2 11.2023 8.31558 9.06787
Pt2 13.6028 9.70151 9.06787
Pt1 10.4022 9.70151 11.222
Pt2 12.0025 9.70151 6.7873
Pt2 14.403 8.31558 6.7873
Pt1 17.6037 8.31558 11.222
Pt2 16.0033 8.31558 9.06787
Pt2 18.4038 9.70151 9.06787
Pt1 15.2032 9.70151 11.222
Pt2 16.8035 9.70151 6.7873
Pt2 19.204 8.31558 6.7873
Pt1 22.4047 8.31558 11.222
Pt2 20.8043 8.31558 9.06787
Pt2 23.2048 9.70151 9.06787
Pt1 20.0042 9.70151 11.222
Pt2 21.6045 9.70151 6.7873
Pt2 7.05243e-06 11.0874 6.7873
Pt1 3.20067 11.0874 11.222
Pt2 1.60034 11.0874 9.06787
Pt2 4.00084 12.4734 9.06787
Pt1 0.800173 12.4734 11.222
Pt2 2.40051 12.4734 6.7873
Pt2 4.801 11.0874 6.7873
Pt1 8.00167 11.0874 11.222
Pt2 6.40134 11.0874 9.06787
Pt2 8.80183 12.4734 9.06787
Pt1 5.60117 12.4734 11.222
Pt2 7.2015 12.4734 6.7873
Pt2 9.602 11.0874 6.7873
Pt1 12.8027 11.0874 11.222
Pt2 11.2023 11.0874 9.06787
Pt2 13.6028 12.4734 9.06787
Pt1 10.4022 12.4734 11.222
Pt2 12.0025 12.4734 6.7873
Pt2 14.403 11.0874 6.7873
Pt1 17.6037 11.0874 11.222
Pt2 16.0033 11.0874 9.06787
Pt2 18.4038 12.4734 9.06787
Pt1 15.2032 12.4734 11.222
Pt2 16.8035 12.4734 6.7873
Pt2 19.204 11.0874 6.7873
Pt1 22.4047 11.0874 11.222
Pt2 20.8043 11.0874 9.06787
Pt2 23.2048 12.4734 9.06787
Pt1 20.0042 12.4734 11.222
Pt2 21.6045 12.4734 6.7873
Pt2 7.05246e-06 13.8593 6.7873
Pt1 3.20067 13.8593 11.222
Pt2 1.60034 13.8593 9.06787
Pt2 4.00084 15.2452 9.06787
Pt1 0.800173 15.2452 11.222
Pt2 2.40051 15.2452 6.7873
Pt2 4.801 13.8593 6.7873
Pt1 8.00167 13.8593 11.222
Pt2 6.40134 13.8593 9.06787
Pt2 8.80183 15.2452 9.06787
Pt1 5.60117 15.2452 11.222
Pt2 7.2015 15.2452 6.7873
Pt2 9.602 13.8593 6.7873
Pt1 12.8027 13.8593 11.222
Pt2 11.2023 13.8593 9.06787
Pt2 13.6028 15.2452 9.06787
Pt1 10.4022 15.2452 11.222