# LAMMPS data file written by OVITO Basic 3.7.7
602 atoms
1 bonds
3 atom types
1 bond types
-0.400085 23.6049 xlo xhi
-0.692966 27.0256 ylo yhi
-5.0 1000.0 zlo zhi

Masses

1 195.0  # Pt
2 195.0  # Pt
3 1.0 # H

Atoms  # full

302 1 1 0.0 3.20067 0.0 11.3161
305 1 1 0.0 0.800167 1.38593 11.3161
308 1 1 0.0 8.00167 0.0 11.3161
311 1 1 0.0 5.60117 1.38593 11.3161
314 1 1 0.0 12.8027 0.0 11.3161
317 1 1 0.0 10.4022 1.38593 11.3161
320 1 1 0.0 17.6037 0.0 11.3161
323 1 1 0.0 15.2032 1.38593 11.3161
326 1 1 0.0 22.4047 0.0 11.3161
329 1 1 0.0 20.0042 1.38593 11.3161
332 1 1 0.0 3.20067 2.77186 11.3161
335 1 1 0.0 0.800167 4.15779 11.3161
338 1 1 0.0 8.00167 2.77186 11.3161
341 1 1 0.0 5.60117 4.15779 11.3161
344 1 1 0.0 12.8027 2.77186 11.3161
347 1 1 0.0 10.4022 4.15779 11.3161
350 1 1 0.0 17.6037 2.77186 11.3161
353 1 1 0.0 15.2032 4.15779 11.3161
356 1 1 0.0 22.4047 2.77186 11.3161
359 1 1 0.0 20.0042 4.15779 11.3161
362 1 1 0.0 3.20067 5.54372 11.3161
365 1 1 0.0 0.800167 6.92965 11.3161
368 1 1 0.0 8.00167 5.54372 11.3161
371 1 1 0.0 5.60117 6.92965 11.3161
374 1 1 0.0 12.8027 5.54372 11.3161
377 1 1 0.0 10.4022 6.92965 11.3161
380 1 1 0.0 17.6037 5.54372 11.3161
383 1 1 0.0 15.2032 6.92965 11.3161
386 1 1 0.0 22.4047 5.54372 11.3161
389 1 1 0.0 20.0042 6.92965 11.3161
392 1 1 0.0 3.20067 8.31558 11.3161
395 1 1 0.0 0.800167 9.7015 11.3161
398 1 1 0.0 8.00167 8.31558 11.3161
401 1 1 0.0 5.60117 9.7015 11.3161
404 1 1 0.0 12.8027 8.31558 11.3161
407 1 1 0.0 10.4022 9.7015 11.3161
410 1 1 0.0 17.6037 8.31558 11.3161
413 1 1 0.0 15.2032 9.7015 11.3161
416 1 1 0.0 22.4047 8.31558 11.3161
419 1 1 0.0 20.0042 9.7015 11.3161
422 1 1 0.0 3.20067 11.0874 11.3161
425 1 1 0.0 0.800167 12.4734 11.3161
428 1 1 0.0 8.00167 11.0874 11.3161
431 1 1 0.0 5.60117 12.4734 11.3161
434 1 1 0.0 12.8027 11.0874 11.3161
437 1 1 0.0 10.4022 12.4734 11.3161
440 1 1 0.0 17.6037 11.0874 11.3161
443 1 1 0.0 15.2032 12.4734 11.3161
446 1 1 0.0 22.4047 11.0874 11.3161
449 1 1 0.0 20.0042 12.4734 11.3161
452 1 1 0.0 3.20067 13.8593 11.3161
455 1 1 0.0 0.800167 15.2452 11.3161
458 1 1 0.0 8.00167 13.8593 11.3161
461 1 1 0.0 5.60117 15.2452 11.3161
464 1 1 0.0 12.8027 13.8593 11.3161
467 1 1 0.0 10.4022 15.2452 11.3161
470 1 1 0.0 17.6037 13.8593 11.3161
473 1 1 0.0 15.2032 15.2452 11.3161
476 1 1 0.0 22.4047 13.8593 11.3161
479 1 1 0.0 20.0042 15.2452 11.3161
482 1 1 0.0 3.20067 16.6312 11.3161
485 1 1 0.0 0.800167 18.0171 11.3161
488 1 1 0.0 8.00167 16.6312 11.3161
491 1 1 0.0 5.60117 18.0171 11.3161
494 1 1 0.0 12.8027 16.6312 11.3161
497 1 1 0.0 10.4022 18.0171 11.3161
500 1 1 0.0 17.6037 16.6312 11.3161
503 1 1 0.0 15.2032 18.0171 11.3161
506 1 1 0.0 22.4047 16.6312 11.3161
509 1 1 0.0 20.0042 18.0171 11.3161
512 1 1 0.0 3.20067 19.403 11.3161
515 1 1 0.0 0.800167 20.7889 11.3161
518 1 1 0.0 8.00167 19.403 11.3161
521 1 1 0.0 5.60117 20.7889 11.3161
524 1 1 0.0 12.8027 19.403 11.3161
527 1 1 0.0 10.4022 20.7889 11.3161
530 1 1 0.0 17.6037 19.403 11.3161
533 1 1 0.0 15.2032 20.7889 11.3161
536 1 1 0.0 22.4047 19.403 11.3161
539 1 1 0.0 20.0042 20.7889 11.3161
542 1 1 0.0 3.20067 22.1749 11.3161
545 1 1 0.0 0.800167 23.5608 11.3161
548 1 1 0.0 8.00167 22.1749 11.3161
551 1 1 0.0 5.60117 23.5608 11.3161
554 1 1 0.0 12.8027 22.1749 11.3161
557 1 1 0.0 10.4022 23.5608 11.3161
560 1 1 0.0 17.6037 22.1749 11.3161
563 1 1 0.0 15.2032 23.5608 11.3161
566 1 1 0.0 22.4047 22.1749 11.3161
569 1 1 0.0 20.0042 23.5608 11.3161
572 1 1 0.0 3.20067 24.9467 11.3161
575 1 1 0.0 0.800167 26.3327 11.3161
578 1 1 0.0 8.00167 24.9467 11.3161
581 1 1 0.0 5.60117 26.3327 11.3161
584 1 1 0.0 12.8027 24.9467 11.3161
587 1 1 0.0 10.4022 26.3327 11.3161
590 1 1 0.0 17.6037 24.9467 11.3161
593 1 1 0.0 15.2032 26.3327 11.3161
596 1 1 0.0 22.4047 24.9467 11.3161
599 1 1 0.0 20.0042 26.3327 11.3161
1 1 2 0.0 0.0 0.0 0.0
2 1 2 0.0 3.20067 0.0 4.52643
3 1 2 0.0 1.60033 0.0 2.26321
4 1 2 0.0 4.00083 1.38593 2.26321
5 1 2 0.0 0.800167 1.38593 4.52643
6 1 2 0.0 2.4005 1.38593 0.0
7 1 2 0.0 4.801 0.0 0.0
8 1 2 0.0 8.00167 0.0 4.52643
9 1 2 0.0 6.40133 0.0 2.26321
10 1 2 0.0 8.80183 1.38593 2.26321
11 1 2 0.0 5.60117 1.38593 4.52643
12 1 2 0.0 7.2015 1.38593 0.0
13 1 2 0.0 9.602 0.0 0.0
14 1 2 0.0 12.8027 0.0 4.52643
15 1 2 0.0 11.2023 0.0 2.26321
16 1 2 0.0 13.6028 1.38593 2.26321
17 1 2 0.0 10.4022 1.38593 4.52643
18 1 2 0.0 12.0025 1.38593 0.0
19 1 2 0.0 14.403 0.0 0.0
20 1 2 0.0 17.6037 0.0 4.52643
21 1 2 0.0 16.0033 0.0 2.26321
22 1 2 0.0 18.4038 1.38593 2.26321
23 1 2 0.0 15.2032 1.38593 4.52643
24 1 2 0.0 16.8035 1.38593 0.0
25 1 2 0.0 19.204 0.0 0.0
26 1 2 0.0 22.4047 0.0 4.52643
27 1 2 0.0 20.8043 0.0 2.26321
28 1 2 0.0 23.2048 1.38593 2.26321
29 1 2 0.0 20.0042 1.38593 4.52643
30 1 2 0.0 21.6045 1.38593 0.0
31 1 2 0.0 0.0 2.77186 0.0
32 1 2 0.0 3.20067 2.77186 4.52643
33 1 2 0.0 1.60033 2.77186 2.26321
34 1 2 0.0 4.00083 4.15779 2.26321
35 1 2 0.0 0.800167 4.15779 4.52643
36 1 2 0.0 2.4005 4.15779 0.0
37 1 2 0.0 4.801 2.77186 0.0
38 1 2 0.0 8.00167 2.77186 4.52643
39 1 2 0.0 6.40133 2.77186 2.26321
40 1 2 0.0 8.80183 4.15779 2.26321
41 1 2 0.0 5.60117 4.15779 4.52643
42 1 2 0.0 7.2015 4.15779 0.0
43 1 2 0.0 9.602 2.77186 0.0
44 1 2 0.0 12.8027 2.77186 4.52643
45 1 2 0.0 11.2023 2.77186 2.26321
46 1 2 0.0 13.6028 4.15779 2.26321
47 1 2 0.0 10.4022 4.15779 4.52643
48 1 2 0.0 12.0025 4.15779 0.0
49 1 2 0.0 14.403 2.77186 0.0
50 1 2 0.0 17.6037 2.77186 4.52643
51 1 2 0.0 16.0033 2.77186 2.26321
52 1 2 0.0 18.4038 4.15779 2.26321
53 1 2 0.0 15.2032 4.15779 4.52643
54 1 2 0.0 16.8035 4.15779 0.0
55 1 2 0.0 19.204 2.77186 0.0
56 1 2 0.0 22.4047 2.77186 4.52643
57 1 2 0.0 20.8043 2.77186 2.26321
58 1 2 0.0 23.2048 4.15779 2.26321
59 1 2 0.0 20.0042 4.15779 4.52643
60 1 2 0.0 21.6045 4.15779 0.0
61 1 2 0.0 0.0 5.54372 0.0
62 1 2 0.0 3.20067 5.54372 4.52643
63 1 2 0.0 1.60033 5.54372 2.26321
64 1 2 0.0 4.00083 6.92965 2.26321
65 1 2 0.0 0.800167 6.92965 4.52643
66 1 2 0.0 2.4005 6.92965 0.0
67 1 2 0.0 4.801 5.54372 0.0
68 1 2 0.0 8.00167 5.54372 4.52643
69 1 2 0.0 6.40133 5.54372 2.26321
70 1 2 0.0 8.80183 6.92965 2.26321
71 1 2 0.0 5.60117 6.92965 4.52643
72 1 2 0.0 7.2015 6.92965 0.0
73 1 2 0.0 9.602 5.54372 0.0
74 1 2 0.0 12.8027 5.54372 4.52643
75 1 2 0.0 11.2023 5.54372 2.26321
76 1 2 0.0 13.6028 6.92965 2.26321
77 1 2 0.0 10.4022 6.92965 4.52643
78 1 2 0.0 12.0025 6.92965 0.0
79 1 2 0.0 14.403 5.54372 0.0
80 1 2 0.0 17.6037 5.54372 4.52643
81 1 2 0.0 16.0033 5.54372 2.26321
82 1 2 0.0 18.4038 6.92965 2.26321
83 1 2 0.0 15.2032 6.92965 4.52643
84 1 2 0.0 16.8035 6.92965 0.0
85 1 2 0.0 19.204 5.54372 0.0
86 1 2 0.0 22.4047 5.54372 4.52643
87 1 2 0.0 20.8043 5.54372 2.26321
88 1 2 0.0 23.2048 6.92965 2.26321
89 1 2 0.0 20.0042 6.92965 4.52643
90 1 2 0.0 21.6045 6.92965 0.0
91 1 2 0.0 0.0 8.31558 0.0
92 1 2 0.0 3.20067 8.31558 4.52643
93 1 2 0.0 1.60033 8.31558 2.26321
94 1 2 0.0 4.00083 9.7015 2.26321
95 1 2 0.0 0.800167 9.7015 4.52643
96 1 2 0.0 2.4005 9.7015 0.0
97 1 2 0.0 4.801 8.31558 0.0
98 1 2 0.0 8.00167 8.31558 4.52643
99 1 2 0.0 6.40133 8.31558 2.26321
100 1 2 0.0 8.80183 9.7015 2.26321
101 1 2 0.0 5.60117 9.7015 4.52643
102 1 2 0.0 7.2015 9.7015 0.0
103 1 2 0.0 9.602 8.31558 0.0
104 1 2 0.0 12.8027 8.31558 4.52643
105 1 2 0.0 11.2023 8.31558 2.26321
106 1 2 0.0 13.6028 9.7015 2.26321
107 1 2 0.0 10.4022 9.7015 4.52643
108 1 2 0.0 12.0025 9.7015 0.0
109 1 2 0.0 14.403 8.31558 0.0
110 1 2 0.0 17.6037 8.31558 4.52643
111 1 2 0.0 16.0033 8.31558 2.26321
112 1 2 0.0 18.4038 9.7015 2.26321
113 1 2 0.0 15.2032 9.7015 4.52643
114 1 2 0.0 16.8035 9.7015 0.0
115 1 2 0.0 19.204 8.31558 0.0
116 1 2 0.0 22.4047 8.31558 4.52643
117 1 2 0.0 20.8043 8.31558 2.26321
118 1 2 0.0 23.2048 9.7015 2.26321
119 1 2 0.0 20.0042 9.7015 4.52643
120 1 2 0.0 21.6045 9.7015 0.0
121 1 2 0.0 0.0 11.0874 0.0
122 1 2 0.0 3.20067 11.0874 4.52643
123 1 2 0.0 1.60033 11.0874 2.26321
124 1 2 0.0 4.00083 12.4734 2.26321
125 1 2 0.0 0.800167 12.4734 4.52643
126 1 2 0.0 2.4005 12.4734 0.0
127 1 2 0.0 4.801 11.0874 0.0
128 1 2 0.0 8.00167 11.0874 4.52643
129 1 2 0.0 6.40133 11.0874 2.26321
130 1 2 0.0 8.80183 12.4734 2.26321
131 1 2 0.0 5.60117 12.4734 4.52643
132 1 2 0.0 7.2015 12.4734 0.0
133 1 2 0.0 9.602 11.0874 0.0
134 1 2 0.0 12.8027 11.0874 4.52643
135 1 2 0.0 11.2023 11.0874 2.26321
136 1 2 0.0 13.6028 12.4734 2.26321
137 1 2 0.0 10.4022 12.4734 4.52643
138 1 2 0.0 12.0025 12.4734 0.0
139 1 2 0.0 14.403 11.0874 0.0
140 1 2 0.0 17.6037 11.0874 4.52643
141 1 2 0.0 16.0033 11.0874 2.26321
142 1 2 0.0 18.4038 12.4734 2.26321
143 1 2 0.0 15.2032 12.4734 4.52643
144 1 2 0.0 16.8035 12.4734 0.0
145 1 2 0.0 19.204 11.0874 0.0
146 1 2 0.0 22.4047 11.0874 4.52643
147 1 2 0.0 20.8043 11.0874 2.26321
148 1 2 0.0 23.2048 12.4734 2.26321
149 1 2 0.0 20.0042 12.4734 4.52643
150 1 2 0.0 21.6045 12.4734 0.0
151 1 2 0.0 0.0 13.8593 0.0
152 1 2 0.0 3.20067 13.8593 4.52643
153 1 2 0.0 1.60033 13.8593 2.26321
154 1 2 0.0 4.00083 15.2452 2.26321
155 1 2 0.0 0.800167 15.2452 4.52643
156 1 2 0.0 2.4005 15.2452 0.0
157 1 2 0.0 4.801 13.8593 0.0
158 1 2 0.0 8.00167 13.8593 4.52643
159 1 2 0.0 6.40133 13.8593 2.26321
160 1 2 0.0 8.80183 15.2452 2.26321
161 1 2 0.0 5.60117 15.2452 4.52643
162 1 2 0.0 7.2015 15.2452 0.0
163 1 2 0.0 9.602 13.8593 0.0
164 1 2 0.0 12.8027 13.8593 4.52643
165 1 2 0.0 11.2023 13.8593 2.26321
166 1 2 0.0 13.6028 15.2452 2.26321
167 1 2 0.0 10.4022 15.2452 4.52643
168 1 2 0.0 12.0025 15.2452 0.0
169 1 2 0.0 14.403 13.8593 0.0
170 1 2 0.0 17.6037 13.8593 4.52643
171 1 2 0.0 16.0033 13.8593 2.26321
172 1 2 0.0 18.4038 15.2452 2.26321
173 1 2 0.0 15.2032 15.2452 4.52643
174 1 2 0.0 16.8035 15.2452 0.0
175 1 2 0.0 19.204 13.8593 0.0
176 1 2 0.0 22.4047 13.8593 4.52643
177 1 2 0.0 20.8043 13.8593 2.26321
178 1 2 0.0 23.2048 15.2452 2.26321
179 1 2 0.0 20.0042 15.2452 4.52643
180 1 2 0.0 21.6045 15.2452 0.0
181 1 2 0.0 0.0 16.6312 0.0
182 1 2 0.0 3.20067 16.6312 4.52643
183 1 2 0.0 1.60033 16.6312 2.26321
184 1 2 0.0 4.00083 18.0171 2.26321
185 1 2 0.0 0.800167 18.0171 4.52643
186 1 2 0.0 2.4005 18.0171 0.0
187 1 2 0.0 4.801 16.6312 0.0
188 1 2 0.0 8.00167 16.6312 4.52643
189 1 2 0.0 6.40133 16.6312 2.26321
190 1 2 0.0 8.80183 18.0171 2.26321
191 1 2 0.0 5.60117 18.0171 4.52643
192 1 2 0.0 7.2015 18.0171 0.0
193 1 2 0.0 9.602 16.6312 0.0
194 1 2 0.0 12.8027 16.6312 4.52643
195 1 2 0.0 11.2023 16.6312 2.26321
196 1 2 0.0 13.6028 18.0171 2.26321
197 1 2 0.0 10.4022 18.0171 4.52643
198 1 2 0.0 12.0025 18.0171 0.0
199 1 2 0.0 14.403 16.6312 0.0
200 1 2 0.0 17.6037 16.6312 4.52643
201 1 2 0.0 16.0033 16.6312 2.26321
202 1 2 0.0 18.4038 18.0171 2.26321
203 1 2 0.0 15.2032 18.0171 4.52643
204 1 2 0.0 16.8035 18.0171 0.0
205 1 2 0.0 19.204 16.6312 0.0
206 1 2 0.0 22.4047 16.6312 4.52643
207 1 2 0.0 20.8043 16.6312 2.26321
208 1 2 0.0 23.2048 18.0171 2.26321
209 1 2 0.0 20.0042 18.0171 4.52643
210 1 2 0.0 21.6045 18.0171 0.0
211 1 2 0.0 0.0 19.403 0.0
212 1 2 0.0 3.20067 19.403 4.52643
213 1 2 0.0 1.60033 19.403 2.26321
214 1 2 0.0 4.00083 20.7889 2.26321
215 1 2 0.0 0.800167 20.7889 4.52643
216 1 2 0.0 2.4005 20.7889 0.0
217 1 2 0.0 4.801 19.403 0.0
218 1 2 0.0 8.00167 19.403 4.52643
219 1 2 0.0 6.40133 19.403 2.26321
220 1 2 0.0 8.80183 20.7889 2.26321
221 1 2 0.0 5.60117 20.7889 4.52643
222 1 2 0.0 7.2015 20.7889 0.0
223 1 2 0.0 9.602 19.403 0.0
224 1 2 0.0 12.8027 19.403 4.52643
225 1 2 0.0 11.2023 19.403 2.26321
226 1 2 0.0 13.6028 20.7889 2.26321
227 1 2 0.0 10.4022 20.7889 4.52643
228 1 2 0.0 12.0025 20.7889 0.0
229 1 2 0.0 14.403 19.403 0.0
230 1 2 0.0 17.6037 19.403 4.52643
231 1 2 0.0 16.0033 19.403 2.26321
232 1 2 0.0 18.4038 20.7889 2.26321
233 1 2 0.0 15.2032 20.7889 4.52643
234 1 2 0.0 16.8035 20.7889 0.0
235 1 2 0.0 19.204 19.403 0.0
236 1 2 0.0 22.4047 19.403 4.52643
237 1 2 0.0 20.8043 19.403 2.26321
238 1 2 0.0 23.2048 20.7889 2.26321
239 1 2 0.0 20.0042 20.7889 4.52643
240 1 2 0.0 21.6045 20.7889 0.0
241 1 2 0.0 0.0 22.1749 0.0
242 1 2 0.0 3.20067 22.1749 4.52643
243 1 2 0.0 1.60033 22.1749 2.26321
244 1 2 0.0 4.00083 23.5608 2.26321
245 1 2 0.0 0.800167 23.5608 4.52643
246 1 2 0.0 2.4005 23.5608 0.0
247 1 2 0.0 4.801 22.1749 0.0
248 1 2 0.0 8.00167 22.1749 4.52643
249 1 2 0.0 6.40133 22.1749 2.26321
250 1 2 0.0 8.80183 23.5608 2.26321
251 1 2 0.0 5.60117 23.5608 4.52643
252 1 2 0.0 7.2015 23.5608 0.0
253 1 2 0.0 9.602 22.1749 0.0
254 1 2 0.0 12.8027 22.1749 4.52643
255 1 2 0.0 11.2023 22.1749 2.26321
256 1 2 0.0 13.6028 23.5608 2.26321
257 1 2 0.0 10.4022 23.5608 4.52643
258 1 2 0.0 12.0025 23.5608 0.0
259 1 2 0.0 14.403 22.1749 0.0
260 1 2 0.0 17.6037 22.1749 4.52643
261 1 2 0.0 16.0033 22.1749 2.26321
262 1 2 0.0 18.4038 23.5608 2.26321
263 1 2 0.0 15.2032 23.5608 4.52643
264 1 2 0.0 16.8035 23.5608 0.0
265 1 2 0.0 19.204 22.1749 0.0
266 1 2 0.0 22.4047 22.1749 4.52643
267 1 2 0.0 20.8043 22.1749 2.26321
268 1 2 0.0 23.2048 23.5608 2.26321
269 1 2 0.0 20.0042 23.5608 4.52643
270 1 2 0.0 21.6045 23.5608 0.0
271 1 2 0.0 0.0 24.9467 0.0
272 1 2 0.0 3.20067 24.9467 4.52643
273 1 2 0.0 1.60033 24.9467 2.26321
274 1 2 0.0 4.00083 26.3327 2.26321
275 1 2 0.0 0.800167 26.3327 4.52643
276 1 2 0.0 2.4005 26.3327 0.0
277 1 2 0.0 4.801 24.9467 0.0
278 1 2 0.0 8.00167 24.9467 4.52643
279 1 2 0.0 6.40133 24.9467 2.26321
280 1 2 0.0 8.80183 26.3327 2.26321
281 1 2 0.0 5.60117 26.3327 4.52643
282 1 2 0.0 7.2015 26.3327 0.0
283 1 2 0.0 9.602 24.9467 0.0
284 1 2 0.0 12.8027 24.9467 4.52643
285 1 2 0.0 11.2023 24.9467 2.26321
286 1 2 0.0 13.6028 26.3327 2.26321
287 1 2 0.0 10.4022 26.3327 4.52643
288 1 2 0.0 12.0025 26.3327 0.0
289 1 2 0.0 14.403 24.9467 0.0
290 1 2 0.0 17.6037 24.9467 4.52643
291 1 2 0.0 16.0033 24.9467 2.26321
292 1 2 0.0 18.4038 26.3327 2.26321
293 1 2 0.0 15.2032 26.3327 4.52643
294 1 2 0.0 16.8035 26.3327 0.0
295 1 2 0.0 19.204 24.9467 0.0
296 1 2 0.0 22.4047 24.9467 4.52643
297 1 2 0.0 20.8043 24.9467 2.26321
298 1 2 0.0 23.2048 26.3327 2.26321
299 1 2 0.0 20.0042 26.3327 4.52643
300 1 2 0.0 21.6045 26.3327 0.0
301 1 2 0.0 0.0 0.0 6.78964
303 1 2 0.0 1.60033 0.0 9.05285
304 1 2 0.0 4.00083 1.38593 9.05285
306 1 2 0.0 2.4005 1.38593 6.78964
307 1 2 0.0 4.801 0.0 6.78964
309 1 2 0.0 6.40133 0.0 9.05285
310 1 2 0.0 8.80183 1.38593 9.05285
312 1 2 0.0 7.2015 1.38593 6.78964
313 1 2 0.0 9.602 0.0 6.78964
315 1 2 0.0 11.2023 0.0 9.05285
316 1 2 0.0 13.6028 1.38593 9.05285
318 1 2 0.0 12.0025 1.38593 6.78964
319 1 2 0.0 14.403 0.0 6.78964
321 1 2 0.0 16.0033 0.0 9.05285
322 1 2 0.0 18.4038 1.38593 9.05285
324 1 2 0.0 16.8035 1.38593 6.78964
325 1 2 0.0 19.204 0.0 6.78964
327 1 2 0.0 20.8043 0.0 9.05285
328 1 2 0.0 23.2048 1.38593 9.05285
330 1 2 0.0 21.6045 1.38593 6.78964
331 1 2 0.0 0.0 2.77186 6.78964
333 1 2 0.0 1.60033 2.77186 9.05285
334 1 2 0.0 4.00083 4.15779 9.05285
336 1 2 0.0 2.4005 4.15779 6.78964
337 1 2 0.0 4.801 2.77186 6.78964
339 1 2 0.0 6.40133 2.77186 9.05285
340 1 2 0.0 8.80183 4.15779 9.05285
342 1 2 0.0 7.2015 4.15779 6.78964
343 1 2 0.0 9.602 2.77186 6.78964
345 1 2 0.0 11.2023 2.77186 9.05285
346 1 2 0.0 13.6028 4.15779 9.05285
348 1 2 0.0 12.0025 4.15779 6.78964
349 1 2 0.0 14.403 2.77186 6.78964
351 1 2 0.0 16.0033 2.77186 9.05285
352 1 2 0.0 18.4038 4.15779 9.05285
354 1 2 0.0 16.8035 4.15779 6.78964
355 1 2 0.0 19.204 2.77186 6.78964
357 1 2 0.0 20.8043 2.77186 9.05285
358 1 2 0.0 23.2048 4.15779 9.05285
360 1 2 0.0 21.6045 4.15779 6.78964
361 1 2 0.0 0.0 5.54372 6.78964
363 1 2 0.0 1.60033 5.54372 9.05285
364 1 2 0.0 4.00083 6.92965 9.05285
366 1 2 0.0 2.4005 6.92965 6.78964
367 1 2 0.0 4.801 5.54372 6.78964
369 1 2 0.0 6.40133 5.54372 9.05285
370 1 2 0.0 8.80183 6.92965 9.05285
372 1 2 0.0 7.2015 6.92965 6.78964
373 1 2 0.0 9.602 5.54372 6.78964
375 1 2 0.0 11.2023 5.54372 9.05285
376 1 2 0.0 13.6028 6.92965 9.05285
378 1 2 0.0 12.0025 6.92965 6.78964
379 1 2 0.0 14.403 5.54372 6.78964
381 1 2 0.0 16.0033 5.54372 9.05285
382 1 2 0.0 18.4038 6.92965 9.05285
384 1 2 0.0 16.8035 6.92965 6.78964
385 1 2 0.0 19.204 5.54372 6.78964
387 1 2 0.0 20.8043 5.54372 9.05285
388 1 2 0.0 23.2048 6.92965 9.05285
390 1 2 0.0 21.6045 6.92965 6.78964
391 1 2 0.0 0.0 8.31558 6.78964
393 1 2 0.0 1.60033 8.31558 9.05285
394 1 2 0.0 4.00083 9.7015 9.05285
396 1 2 0.0 2.4005 9.7015 6.78964
397 1 2 0.0 4.801 8.31558 6.78964
399 1 2 0.0 6.40133 8.31558 9.05285
400 1 2 0.0 8.80183 9.7015 9.05285
402 1 2 0.0 7.2015 9.7015 6.78964
403 1 2 0.0 9.602 8.31558 6.78964
405 1 2 0.0 11.2023 8.31558 9.05285
406 1 2 0.0 13.6028 9.7015 9.05285
408 1 2 0.0 12.0025 9.7015 6.78964
409 1 2 0.0 14.403 8.31558 6.78964
411 1 2 0.0 16.0033 8.31558 9.05285
412 1 2 0.0 18.4038 9.7015 9.05285
414 1 2 0.0 16.8035 9.7015 6.78964
415 1 2 0.0 19.204 8.31558 6.78964
417 1 2 0.0 20.8043 8.31558 9.05285
418 1 2 0.0 23.2048 9.7015 9.05285
420 1 2 0.0 21.6045 9.7015 6.78964
421 1 2 0.0 0.0 11.0874 6.78964
423 1 2 0.0 1.60033 11.0874 9.05285
424 1 2 0.0 4.00083 12.4734 9.05285
426 1 2 0.0 2.4005 12.4734 6.78964
427 1 2 0.0 4.801 11.0874 6.78964
429 1 2 0.0 6.40133 11.0874 9.05285
430 1 2 0.0 8.80183 12.4734 9.05285
432 1 2 0.0 7.2015 12.4734 6.78964
433 1 2 0.0 9.602 11.0874 6.78964
435 1 2 0.0 11.2023 11.0874 9.05285
436 1 2 0.0 13.6028 12.4734 9.05285
438 1 2 0.0 12.0025 12.4734 6.78964
439 1 2 0.0 14.403 11.0874 6.78964
441 1 2 0.0 16.0033 11.0874 9.05285
442 1 2 0.0 18.4038 12.4734 9.05285
444 1 2 0.0 16.8035 12.4734 6.78964
445 1 2 0.0 19.204 11.0874 6.78964
447 1 2 0.0 20.8043 11.0874 9.05285
448 1 2 0.0 23.2048 12.4734 9.05285
450 1 2 0.0 21.6045 12.4734 6.78964
451 1 2 0.0 0.0 13.8593 6.78964
453 1 2 0.0 1.60033 13.8593 9.05285
454 1 2 0.0 4.00083 15.2452 9.05285
456 1 2 0.0 2.4005 15.2452 6.78964
457 1 2 0.0 4.801 13.8593 6.78964
459 1 2 0.0 6.40133 13.8593 9.05285
460 1 2 0.0 8.80183 15.2452 9.05285
462 1 2 0.0 7.2015 15.2452 6.78964
463 1 2 0.0 9.602 13.8593 6.78964
465 1 2 0.0 11.2023 13.8593 9.05285
466 1 2 0.0 13.6028 15.2452 9.05285
468 1 2 0.0 12.0025 15.2452 6.78964
469 1 2 0.0 14.403 13.8593 6.78964
471 1 2 0.0 16.0033 13.8593 9.05285
472 1 2 0.0 18.4038 15.2452 9.05285
474 1 2 0.0 16.8035 15.2452 6.78964
475 1 2 0.0 19.204 13.8593 6.78964
477 1 2 0.0 20.8043 13.8593 9.05285
478 1 2 0.0 23.2048 15.2452 9.05285
480 1 2 0.0 21.6045 15.2452 6.78964
481 1 2 0.0 0.0 16.6312 6.78964
483 1 2 0.0 1.60033 16.6312 9.05285
484 1 2 0.0 4.00083 18.0171 9.05285
486 1 2 0.0 2.4005 18.0171 6.78964
487 1 2 0.0 4.801 16.6312 6.78964
489 1 2 0.0 6.40133 16.6312 9.05285
490 1 2 0.0 8.80183 18.0171 9.05285
492 1 2 0.0 7.2015 18.0171 6.78964
493 1 2 0.0 9.602 16.6312 6.78964
495 1 2 0.0 11.2023 16.6312 9.05285
496 1 2 0.0 13.6028 18.0171 9.05285
498 1 2 0.0 12.0025 18.0171 6.78964
499 1 2 0.0 14.403 16.6312 6.78964
501 1 2 0.0 16.0033 16.6312 9.05285
502 1 2 0.0 18.4038 18.0171 9.05285
504 1 2 0.0 16.8035 18.0171 6.78964
505 1 2 0.0 19.204 16.6312 6.78964
507 1 2 0.0 20.8043 16.6312 9.05285
508 1 2 0.0 23.2048 18.0171 9.05285
510 1 2 0.0 21.6045 18.0171 6.78964
511 1 2 0.0 0.0 19.403 6.78964
513 1 2 0.0 1.60033 19.403 9.05285
514 1 2 0.0 4.00083 20.7889 9.05285
516 1 2 0.0 2.4005 20.7889 6.78964
517 1 2 0.0 4.801 19.403 6.78964
519 1 2 0.0 6.40133 19.403 9.05285
520 1 2 0.0 8.80183 20.7889 9.05285
522 1 2 0.0 7.2015 20.7889 6.78964
523 1 2 0.0 9.602 19.403 6.78964
525 1 2 0.0 11.2023 19.403 9.05285
526 1 2 0.0 13.6028 20.7889 9.05285
528 1 2 0.0 12.0025 20.7889 6.78964
529 1 2 0.0 14.403 19.403 6.78964
531 1 2 0.0 16.0033 19.403 9.05285
532 1 2 0.0 18.4038 20.7889 9.05285
534 1 2 0.0 16.8035 20.7889 6.78964
535 1 2 0.0 19.204 19.403 6.78964
537 1 2 0.0 20.8043 19.403 9.05285
538 1 2 0.0 23.2048 20.7889 9.05285
540 1 2 0.0 21.6045 20.7889 6.78964
541 1 2 0.0 0.0 22.1749 6.78964
543 1 2 0.0 1.60033 22.1749 9.05285
544 1 2 0.0 4.00083 23.5608 9.05285
546 1 2 0.0 2.4005 23.5608 6.78964
547 1 2 0.0 4.801 22.1749 6.78964
549 1 2 0.0 6.40133 22.1749 9.05285
550 1 2 0.0 8.80183 23.5608 9.05285
552 1 2 0.0 7.2015 23.5608 6.78964
553 1 2 0.0 9.602 22.1749 6.78964
555 1 2 0.0 11.2023 22.1749 9.05285
556 1 2 0.0 13.6028 23.5608 9.05285
558 1 2 0.0 12.0025 23.5608 6.78964
559 1 2 0.0 14.403 22.1749 6.78964
561 1 2 0.0 16.0033 22.1749 9.05285
562 1 2 0.0 18.4038 23.5608 9.05285
564 1 2 0.0 16.8035 23.5608 6.78964
565 1 2 0.0 19.204 22.1749 6.78964
567 1 2 0.0 20.8043 22.1749 9.05285
568 1 2 0.0 23.2048 23.5608 9.05285
570 1 2 0.0 21.6045 23.5608 6.78964
571 1 2 0.0 0.0 24.9467 6.78964
573 1 2 0.0 1.60033 24.9467 9.05285
574 1 2 0.0 4.00083 26.3327 9.05285
576 1 2 0.0 2.4005 26.3327 6.78964
577 1 2 0.0 4.801 24.9467 6.78964
579 1 2 0.0 6.40133 24.9467 9.05285
580 1 2 0.0 8.80183 26.3327 9.05285
582 1 2 0.0 7.2015 26.3327 6.78964
583 1 2 0.0 9.602 24.9467 6.78964
585 1 2 0.0 11.2023 24.9467 9.05285
586 1 2 0.0 13.6028 26.3327 9.05285
588 1 2 0.0 12.0025 26.3327 6.78964
589 1 2 0.0 14.403 24.9467 6.78964
591 1 2 0.0 16.0033 24.9467 9.05285
592 1 2 0.0 18.4038 26.3327 9.05285
594 1 2 0.0 16.8035 26.3327 6.78964
595 1 2 0.0 19.204 24.9467 6.78964
597 1 2 0.0 20.8043 24.9467 9.05285
598 1 2 0.0 23.2048 26.3327 9.05285
600 1 2 0.0 21.6045 26.3327 6.78964
601 1 3 0.0 x_ran y_ran 23.30
602 1 3 0.0 coord_x coord_y coord_z


Bonds

1 1 601 602

